         500
 #step            0
C 1000.000000 1000.000000 1000.000000
C 1001.540000 1000.000000 1000.000000
C 1002.054063 1001.451668 1000.000000
C 1003.594063 1001.451668 1000.000000
C 1004.108125 1002.903336 1000.000000
C 1005.648125 1002.903336 1000.000000
C 1006.162188 1004.355004 1000.000000
C 1007.702188 1004.355004 1000.000000
C 1008.216250 1005.806672 1000.000000
C 1009.756250 1005.806672 1000.000000
C 1010.270313 1007.258339 1000.000000
C 1011.810313 1007.258339 1000.000000
C 1012.324375 1008.710007 1000.000000
C 1013.864375 1008.710007 1000.000000
C 1014.378438 1010.161675 1000.000000
C 1015.918438 1010.161675 1000.000000
C 1016.432501 1011.613343 1000.000000
C 1017.972501 1011.613343 1000.000000
C 1018.486563 1013.065011 1000.000000
C 1020.026563 1013.065011 1000.000000
C 1020.540626 1014.516679 1000.000000
C 1022.080626 1014.516679 1000.000000
C 1022.594688 1015.968347 1000.000000
C 1024.134688 1015.968347 1000.000000
C 1024.648751 1017.420015 1000.000000
C 1026.188751 1017.420015 1000.000000
C 1026.702813 1018.871683 1000.000000
C 1028.242813 1018.871683 1000.000000
C 1028.756876 1020.323351 1000.000000
C 1030.296876 1020.323351 1000.000000
C 1030.810938 1021.775018 1000.000000
C 1032.350938 1021.775018 1000.000000
C 1032.865001 1023.226686 1000.000000
C 1034.405001 1023.226686 1000.000000
C 1034.919064 1024.678354 1000.000000
C 1036.459064 1024.678354 1000.000000
C 1036.973126 1026.130022 1000.000000
C 1038.513126 1026.130022 1000.000000
C 1039.027189 1027.581690 1000.000000
C 1040.567189 1027.581690 1000.000000
C 1041.081251 1029.033358 1000.000000
C 1042.621251 1029.033358 1000.000000
C 1043.135314 1030.485026 1000.000000
C 1044.675314 1030.485026 1000.000000
C 1045.189376 1031.936694 1000.000000
C 1046.729376 1031.936694 1000.000000
C 1047.243439 1033.388362 1000.000000
C 1048.783439 1033.388362 1000.000000
C 1049.297502 1034.840030 1000.000000
C 1050.837502 1034.840030 1000.000000
C 1051.351564 1036.291697 1000.000000
C 1052.891564 1036.291697 1000.000000
C 1053.405627 1037.743365 1000.000000
C 1054.945627 1037.743365 1000.000000
C 1055.459689 1039.195033 1000.000000
C 1056.999689 1039.195033 1000.000000
C 1057.513752 1040.646701 1000.000000
C 1059.053752 1040.646701 1000.000000
C 1059.567814 1042.098369 1000.000000
C 1061.107814 1042.098369 1000.000000
C 1061.621877 1043.550037 1000.000000
C 1063.161877 1043.550037 1000.000000
C 1063.675939 1045.001705 1000.000000
C 1065.215939 1045.001705 1000.000000
C 1065.730002 1046.453373 1000.000000
C 1067.270002 1046.453373 1000.000000
C 1067.784065 1047.905041 1000.000000
C 1069.324065 1047.905041 1000.000000
C 1069.838127 1049.356708 1000.000000
C 1071.378127 1049.356708 1000.000000
C 1071.892190 1050.808376 1000.000000
C 1073.432190 1050.808376 1000.000000
C 1073.946252 1052.260044 1000.000000
C 1075.486252 1052.260044 1000.000000
C 1076.000315 1053.711712 1000.000000
C 1077.540315 1053.711712 1000.000000
C 1078.054377 1055.163380 1000.000000
C 1079.594377 1055.163380 1000.000000
C 1080.108440 1056.615048 1000.000000
C 1081.648440 1056.615048 1000.000000
C 1082.162503 1058.066716 1000.000000
C 1083.702503 1058.066716 1000.000000
C 1084.216565 1059.518384 1000.000000
C 1085.756565 1059.518384 1000.000000
C 1086.270628 1060.970052 1000.000000
C 1087.810628 1060.970052 1000.000000
C 1088.324690 1062.421720 1000.000000
C 1089.864690 1062.421720 1000.000000
C 1090.378753 1063.873387 1000.000000
C 1091.918753 1063.873387 1000.000000
C 1092.432815 1065.325055 1000.000000
C 1093.972815 1065.325055 1000.000000
C 1094.486878 1066.776723 1000.000000
C 1096.026878 1066.776723 1000.000000
C 1096.540940 1068.228391 1000.000000
C 1098.080940 1068.228391 1000.000000
C 1098.595003 1069.680059 1000.000000
C 1100.135003 1069.680059 1000.000000
C 1100.649066 1071.131727 1000.000000
C 1102.189066 1071.131727 1000.000000
C 1102.703128 1072.583395 1000.000000
C 1104.243128 1072.583395 1000.000000
C 1104.757191 1074.035063 1000.000000
C 1106.297191 1074.035063 1000.000000
C 1106.811253 1075.486731 1000.000000
C 1108.351253 1075.486731 1000.000000
C 1108.865316 1076.938399 1000.000000
C 1110.405316 1076.938399 1000.000000
C 1110.919378 1078.390066 1000.000000
C 1112.459378 1078.390066 1000.000000
C 1112.973441 1079.841734 1000.000000
C 1114.513441 1079.841734 1000.000000
C 1115.027504 1081.293402 1000.000000
C 1116.567504 1081.293402 1000.000000
C 1117.081566 1082.745070 1000.000000
C 1118.621566 1082.745070 1000.000000
C 1119.135629 1084.196738 1000.000000
C 1120.675629 1084.196738 1000.000000
C 1121.189691 1085.648406 1000.000000
C 1122.729691 1085.648406 1000.000000
C 1123.243754 1087.100074 1000.000000
C 1124.783754 1087.100074 1000.000000
C 1125.297816 1088.551742 1000.000000
C 1126.837816 1088.551742 1000.000000
C 1127.351879 1090.003410 1000.000000
C 1128.891879 1090.003410 1000.000000
C 1129.405941 1091.455077 1000.000000
C 1130.945941 1091.455077 1000.000000
C 1131.460004 1092.906745 1000.000000
C 1133.000004 1092.906745 1000.000000
C 1133.514067 1094.358413 1000.000000
C 1135.054067 1094.358413 1000.000000
C 1135.568129 1095.810081 1000.000000
C 1137.108129 1095.810081 1000.000000
C 1137.622192 1097.261749 1000.000000
C 1139.162192 1097.261749 1000.000000
C 1139.676254 1098.713417 1000.000000
C 1141.216254 1098.713417 1000.000000
C 1141.730317 1100.165085 1000.000000
C 1143.270317 1100.165085 1000.000000
C 1143.784379 1101.616753 1000.000000
C 1145.324379 1101.616753 1000.000000
C 1145.838442 1103.068421 1000.000000
C 1147.378442 1103.068421 1000.000000
C 1147.892505 1104.520089 1000.000000
C 1149.432505 1104.520089 1000.000000
C 1149.946567 1105.971756 1000.000000
C 1151.486567 1105.971756 1000.000000
C 1152.000630 1107.423424 1000.000000
C 1153.540630 1107.423424 1000.000000
C 1154.054692 1108.875092 1000.000000
C 1155.594692 1108.875092 1000.000000
C 1156.108755 1110.326760 1000.000000
C 1157.648755 1110.326760 1000.000000
C 1158.162817 1111.778428 1000.000000
C 1159.702817 1111.778428 1000.000000
C 1160.216880 1113.230096 1000.000000
C 1161.756880 1113.230096 1000.000000
C 1162.270942 1114.681764 1000.000000
C 1163.810942 1114.681764 1000.000000
C 1164.325005 1116.133432 1000.000000
C 1165.865005 1116.133432 1000.000000
C 1166.379068 1117.585100 1000.000000
C 1167.919068 1117.585100 1000.000000
C 1168.433130 1119.036767 1000.000000
C 1169.973130 1119.036767 1000.000000
C 1170.487193 1120.488435 1000.000000
C 1172.027193 1120.488435 1000.000000
C 1172.541255 1121.940103 1000.000000
C 1174.081255 1121.940103 1000.000000
C 1174.595318 1123.391771 1000.000000
C 1176.135318 1123.391771 1000.000000
C 1176.649380 1124.843439 1000.000000
C 1178.189380 1124.843439 1000.000000
C 1178.703443 1126.295107 1000.000000
C 1180.243443 1126.295107 1000.000000
C 1180.757506 1127.746775 1000.000000
C 1182.297506 1127.746775 1000.000000
C 1182.811568 1129.198443 1000.000000
C 1184.351568 1129.198443 1000.000000
C 1184.865631 1130.650111 1000.000000
C 1186.405631 1130.650111 1000.000000
C 1186.919693 1132.101779 1000.000000
C 1188.459693 1132.101779 1000.000000
C 1188.973756 1133.553446 1000.000000
C 1190.513756 1133.553446 1000.000000
C 1191.027818 1135.005114 1000.000000
C 1192.567818 1135.005114 1000.000000
C 1193.081881 1136.456782 1000.000000
C 1194.621881 1136.456782 1000.000000
C 1195.135944 1137.908450 1000.000000
C 1196.675944 1137.908450 1000.000000
C 1197.190006 1139.360118 1000.000000
C 1198.730006 1139.360118 1000.000000
C 1199.244069 1140.811786 1000.000000
C 1200.784069 1140.811786 1000.000000
C 1201.298131 1142.263454 1000.000000
C 1202.838131 1142.263454 1000.000000
C 1203.352194 1143.715122 1000.000000
C 1204.892194 1143.715122 1000.000000
C 1205.406256 1145.166790 1000.000000
C 1206.946256 1145.166790 1000.000000
C 1207.460319 1146.618458 1000.000000
C 1209.000319 1146.618458 1000.000000
C 1209.514381 1148.070125 1000.000000
C 1211.054381 1148.070125 1000.000000
C 1211.568444 1149.521793 1000.000000
C 1213.108444 1149.521793 1000.000000
C 1213.622507 1150.973461 1000.000000
C 1215.162507 1150.973461 1000.000000
C 1215.676569 1152.425129 1000.000000
C 1217.216569 1152.425129 1000.000000
C 1217.730632 1153.876797 1000.000000
C 1219.270632 1153.876797 1000.000000
C 1219.784694 1155.328465 1000.000000
C 1221.324694 1155.328465 1000.000000
C 1221.838757 1156.780133 1000.000000
C 1223.378757 1156.780133 1000.000000
C 1223.892819 1158.231801 1000.000000
C 1225.432819 1158.231801 1000.000000
C 1225.946882 1159.683469 1000.000000
C 1227.486882 1159.683469 1000.000000
C 1228.000945 1161.135136 1000.000000
C 1229.540945 1161.135136 1000.000000
C 1230.055007 1162.586804 1000.000000
C 1231.595007 1162.586804 1000.000000
C 1232.109070 1164.038472 1000.000000
C 1233.649070 1164.038472 1000.000000
C 1234.163132 1165.490140 1000.000000
C 1235.703132 1165.490140 1000.000000
C 1236.217195 1166.941808 1000.000000
C 1237.757195 1166.941808 1000.000000
C 1238.271257 1168.393476 1000.000000
C 1239.811257 1168.393476 1000.000000
C 1240.325320 1169.845144 1000.000000
C 1241.865320 1169.845144 1000.000000
C 1242.379382 1171.296812 1000.000000
C 1243.919382 1171.296812 1000.000000
C 1244.433445 1172.748480 1000.000000
C 1245.973445 1172.748480 1000.000000
C 1246.487508 1174.200148 1000.000000
C 1248.027508 1174.200148 1000.000000
C 1248.541570 1175.651815 1000.000000
C 1250.081570 1175.651815 1000.000000
C 1250.595633 1177.103483 1000.000000
C 1252.135633 1177.103483 1000.000000
C 1252.649695 1178.555151 1000.000000
C 1254.189695 1178.555151 1000.000000
C 1254.703758 1180.006819 1000.000000
C 1256.243758 1180.006819 1000.000000
C 1256.757820 1181.458487 1000.000000
C 1258.297820 1181.458487 1000.000000
C 1258.811883 1182.910155 1000.000000
C 1260.351883 1182.910155 1000.000000
C 1260.865946 1184.361823 1000.000000
C 1262.405946 1184.361823 1000.000000
C 1262.920008 1185.813491 1000.000000
C 1264.460008 1185.813491 1000.000000
C 1264.974071 1187.265159 1000.000000
C 1266.514071 1187.265159 1000.000000
C 1267.028133 1188.716827 1000.000000
C 1268.568133 1188.716827 1000.000000
C 1269.082196 1190.168494 1000.000000
C 1270.622196 1190.168494 1000.000000
C 1271.136258 1191.620162 1000.000000
C 1272.676258 1191.620162 1000.000000
C 1273.190321 1193.071830 1000.000000
C 1274.730321 1193.071830 1000.000000
C 1275.244383 1194.523498 1000.000000
C 1276.784383 1194.523498 1000.000000
C 1277.298446 1195.975166 1000.000000
C 1278.838446 1195.975166 1000.000000
C 1279.352509 1197.426834 1000.000000
C 1280.892509 1197.426834 1000.000000
C 1281.406571 1198.878502 1000.000000
C 1282.946571 1198.878502 1000.000000
C 1283.460634 1200.330170 1000.000000
C 1285.000634 1200.330170 1000.000000
C 1285.514696 1201.781838 1000.000000
C 1287.054696 1201.781838 1000.000000
C 1287.568759 1203.233505 1000.000000
C 1289.108759 1203.233505 1000.000000
C 1289.622821 1204.685173 1000.000000
C 1291.162821 1204.685173 1000.000000
C 1291.676884 1206.136841 1000.000000
C 1293.216884 1206.136841 1000.000000
C 1293.730947 1207.588509 1000.000000
C 1295.270947 1207.588509 1000.000000
C 1295.785009 1209.040177 1000.000000
C 1297.325009 1209.040177 1000.000000
C 1297.839072 1210.491845 1000.000000
C 1299.379072 1210.491845 1000.000000
C 1299.893134 1211.943513 1000.000000
C 1301.433134 1211.943513 1000.000000
C 1301.947197 1213.395181 1000.000000
C 1303.487197 1213.395181 1000.000000
C 1304.001259 1214.846849 1000.000000
C 1305.541259 1214.846849 1000.000000
C 1306.055322 1216.298517 1000.000000
C 1307.595322 1216.298517 1000.000000
C 1308.109384 1217.750184 1000.000000
C 1309.649384 1217.750184 1000.000000
C 1310.163447 1219.201852 1000.000000
C 1311.703447 1219.201852 1000.000000
C 1312.217510 1220.653520 1000.000000
C 1313.757510 1220.653520 1000.000000
C 1314.271572 1222.105188 1000.000000
C 1315.811572 1222.105188 1000.000000
C 1316.325635 1223.556856 1000.000000
C 1317.865635 1223.556856 1000.000000
C 1318.379697 1225.008524 1000.000000
C 1319.919697 1225.008524 1000.000000
C 1320.433760 1226.460192 1000.000000
C 1321.973760 1226.460192 1000.000000
C 1322.487822 1227.911860 1000.000000
C 1324.027822 1227.911860 1000.000000
C 1324.541885 1229.363528 1000.000000
C 1326.081885 1229.363528 1000.000000
C 1326.595948 1230.815196 1000.000000
C 1328.135948 1230.815196 1000.000000
C 1328.650010 1232.266863 1000.000000
C 1330.190010 1232.266863 1000.000000
C 1330.704073 1233.718531 1000.000000
C 1332.244073 1233.718531 1000.000000
C 1332.758135 1235.170199 1000.000000
C 1334.298135 1235.170199 1000.000000
C 1334.812198 1236.621867 1000.000000
C 1336.352198 1236.621867 1000.000000
C 1336.866260 1238.073535 1000.000000
C 1338.406260 1238.073535 1000.000000
C 1338.920323 1239.525203 1000.000000
C 1340.460323 1239.525203 1000.000000
C 1340.974385 1240.976871 1000.000000
C 1342.514385 1240.976871 1000.000000
C 1343.028448 1242.428539 1000.000000
C 1344.568448 1242.428539 1000.000000
C 1345.082511 1243.880207 1000.000000
C 1346.622511 1243.880207 1000.000000
C 1347.136573 1245.331874 1000.000000
C 1348.676573 1245.331874 1000.000000
C 1349.190636 1246.783542 1000.000000
C 1350.730636 1246.783542 1000.000000
C 1351.244698 1248.235210 1000.000000
C 1352.784698 1248.235210 1000.000000
C 1353.298761 1249.686878 1000.000000
C 1354.838761 1249.686878 1000.000000
C 1355.352823 1251.138546 1000.000000
C 1356.892823 1251.138546 1000.000000
C 1357.406886 1252.590214 1000.000000
C 1358.946886 1252.590214 1000.000000
C 1359.460949 1254.041882 1000.000000
C 1361.000949 1254.041882 1000.000000
C 1361.515011 1255.493550 1000.000000
C 1363.055011 1255.493550 1000.000000
C 1363.569074 1256.945218 1000.000000
C 1365.109074 1256.945218 1000.000000
C 1365.623136 1258.396886 1000.000000
C 1367.163136 1258.396886 1000.000000
C 1367.677199 1259.848553 1000.000000
C 1369.217199 1259.848553 1000.000000
C 1369.731261 1261.300221 1000.000000
C 1371.271261 1261.300221 1000.000000
C 1371.785324 1262.751889 1000.000000
C 1373.325324 1262.751889 1000.000000
C 1373.839387 1264.203557 1000.000000
C 1375.379387 1264.203557 1000.000000
C 1375.893449 1265.655225 1000.000000
C 1377.433449 1265.655225 1000.000000
C 1377.947512 1267.106893 1000.000000
C 1379.487512 1267.106893 1000.000000
C 1380.001574 1268.558561 1000.000000
C 1381.541574 1268.558561 1000.000000
C 1382.055637 1270.010229 1000.000000
C 1383.595637 1270.010229 1000.000000
C 1384.109699 1271.461897 1000.000000
C 1385.649699 1271.461897 1000.000000
C 1386.163762 1272.913565 1000.000000
C 1387.703762 1272.913565 1000.000000
C 1388.217824 1274.365232 1000.000000
C 1389.757824 1274.365232 1000.000000
C 1390.271887 1275.816900 1000.000000
C 1391.811887 1275.816900 1000.000000
C 1392.325950 1277.268568 1000.000000
C 1393.865950 1277.268568 1000.000000
C 1394.380012 1278.720236 1000.000000
C 1395.920012 1278.720236 1000.000000
C 1396.434075 1280.171904 1000.000000
C 1397.974075 1280.171904 1000.000000
C 1398.488137 1281.623572 1000.000000
C 1400.028137 1281.623572 1000.000000
C 1400.542200 1283.075240 1000.000000
C 1402.082200 1283.075240 1000.000000
C 1402.596262 1284.526908 1000.000000
C 1404.136262 1284.526908 1000.000000
C 1404.650325 1285.978576 1000.000000
C 1406.190325 1285.978576 1000.000000
C 1406.704388 1287.430243 1000.000000
C 1408.244388 1287.430243 1000.000000
C 1408.758450 1288.881911 1000.000000
C 1410.298450 1288.881911 1000.000000
C 1410.812513 1290.333579 1000.000000
C 1412.352513 1290.333579 1000.000000
C 1412.866575 1291.785247 1000.000000
C 1414.406575 1291.785247 1000.000000
C 1414.920638 1293.236915 1000.000000
C 1416.460638 1293.236915 1000.000000
C 1416.974700 1294.688583 1000.000000
C 1418.514700 1294.688583 1000.000000
C 1419.028763 1296.140251 1000.000000
C 1420.568763 1296.140251 1000.000000
C 1421.082825 1297.591919 1000.000000
C 1422.622825 1297.591919 1000.000000
C 1423.136888 1299.043587 1000.000000
C 1424.676888 1299.043587 1000.000000
C 1425.190951 1300.495255 1000.000000
C 1426.730951 1300.495255 1000.000000
C 1427.245013 1301.946922 1000.000000
C 1428.785013 1301.946922 1000.000000
C 1429.299076 1303.398590 1000.000000
C 1430.839076 1303.398590 1000.000000
C 1431.353138 1304.850258 1000.000000
C 1432.893138 1304.850258 1000.000000
C 1433.407201 1306.301926 1000.000000
C 1434.947201 1306.301926 1000.000000
C 1435.461263 1307.753594 1000.000000
C 1437.001263 1307.753594 1000.000000
C 1437.515326 1309.205262 1000.000000
C 1439.055326 1309.205262 1000.000000
C 1439.569389 1310.656930 1000.000000
C 1441.109389 1310.656930 1000.000000
C 1441.623451 1312.108598 1000.000000
C 1443.163451 1312.108598 1000.000000
C 1443.677514 1313.560266 1000.000000
C 1445.217514 1313.560266 1000.000000
C 1445.731576 1315.011933 1000.000000
C 1447.271576 1315.011933 1000.000000
C 1447.785639 1316.463601 1000.000000
C 1449.325639 1316.463601 1000.000000
C 1449.839701 1317.915269 1000.000000
C 1451.379701 1317.915269 1000.000000
C 1451.893764 1319.366937 1000.000000
C 1453.433764 1319.366937 1000.000000
C 1453.947826 1320.818605 1000.000000
C 1455.487826 1320.818605 1000.000000
C 1456.001889 1322.270273 1000.000000
C 1457.541889 1322.270273 1000.000000
C 1458.055952 1323.721941 1000.000000
C 1459.595952 1323.721941 1000.000000
C 1460.110014 1325.173609 1000.000000
C 1461.650014 1325.173609 1000.000000
C 1462.164077 1326.625277 1000.000000
C 1463.704077 1326.625277 1000.000000
C 1464.218139 1328.076945 1000.000000
C 1465.758139 1328.076945 1000.000000
C 1466.272202 1329.528612 1000.000000
C 1467.812202 1329.528612 1000.000000
C 1468.326264 1330.980280 1000.000000
C 1469.866264 1330.980280 1000.000000
C 1470.380327 1332.431948 1000.000000
C 1471.920327 1332.431948 1000.000000
C 1472.434390 1333.883616 1000.000000
C 1473.974390 1333.883616 1000.000000
C 1474.488452 1335.335284 1000.000000
C 1476.028452 1335.335284 1000.000000
C 1476.542515 1336.786952 1000.000000
C 1478.082515 1336.786952 1000.000000
C 1478.596577 1338.238620 1000.000000
C 1480.136577 1338.238620 1000.000000
C 1480.650640 1339.690288 1000.000000
C 1482.190640 1339.690288 1000.000000
C 1482.704702 1341.141956 1000.000000
C 1484.244702 1341.141956 1000.000000
C 1484.758765 1342.593624 1000.000000
C 1486.298765 1342.593624 1000.000000
C 1486.812827 1344.045291 1000.000000
C 1488.352827 1344.045291 1000.000000
C 1488.866890 1345.496959 1000.000000
C 1490.406890 1345.496959 1000.000000
C 1490.920953 1346.948627 1000.000000
C 1492.460953 1346.948627 1000.000000
C 1492.975015 1348.400295 1000.000000
C 1494.515015 1348.400295 1000.000000
C 1495.029078 1349.851963 1000.000000
C 1496.569078 1349.851963 1000.000000
C 1497.083140 1351.303631 1000.000000
C 1498.623140 1351.303631 1000.000000
C 1499.137203 1352.755299 1000.000000
C 1500.677203 1352.755299 1000.000000
C 1501.191265 1354.206967 1000.000000
C 1502.731265 1354.206967 1000.000000
C 1503.245328 1355.658635 1000.000000
C 1504.785328 1355.658635 1000.000000
C 1505.299391 1357.110302 1000.000000
C 1506.839391 1357.110302 1000.000000
C 1507.353453 1358.561970 1000.000000
C 1508.893453 1358.561970 1000.000000
C 1509.407516 1360.013638 1000.000000
C 1510.947516 1360.013638 1000.000000
C 1511.461578 1361.465306 1000.000000
C 1513.001578 1361.465306 1000.000000
         500
 #step          100
C 1000.000000 1000.000000 1000.000000
C 1001.540000 1000.000000 1000.000000
C 1002.054063 1001.451668 1000.000000
C 1003.566591 1001.461396  999.710584
C 1004.186523 1002.760173 1000.258729
C 1005.485492 1003.072902  999.492909
C 1006.341784 1004.055713 1000.312937
C 1007.321515 1004.788184  999.377409
C 1008.521415 1005.305209 1000.192593
C 1009.241103 1006.413333  999.401576
C 1010.690342 1006.546055  999.905252
C 1011.227289 1007.948147  999.562578
C 1012.766287 1007.912904  999.519648
C 1013.318198 1009.340146  999.692775
C 1014.715125 1009.432463  999.051157
C 1015.505717 1010.581576  999.703923
C 1016.633998 1011.031894  998.757458
C 1017.662336 1011.866047  999.543785
C 1018.547382 1012.652407  998.558934
C 1019.822950 1013.126456  999.279909
C 1020.409186 1014.343519  998.540528
C 1021.918194 1014.443682  998.831155
C 1022.391850 1015.890239  998.597225
C 1023.914416 1015.901642  998.366436
C 1024.471151 1017.303192  998.678371
C 1025.798174 1017.508698  997.924464
C 1026.602570 1018.636251  998.597643
C 1027.637788 1019.193636  997.603034
C 1028.753486 1019.921150  998.376041
C 1029.459620 1020.920220  997.440715
C 1030.844892 1021.270983  998.014812
C 1031.358173 1022.568223  997.362654
C 1032.886440 1022.657863  997.529881
C 1033.329599 1024.129012  997.425340
C 1034.836654 1024.191080  997.114643
C 1035.370570 1025.598977  997.437689
C 1036.714696 1025.816614  996.718272
C 1037.489536 1026.953860  997.409572
C 1038.475099 1027.586402  996.409494
C 1039.506967 1028.437267  997.172957
C 1040.175614 1029.428056  996.201953
C 1041.527859 1029.882787  996.781827
C 1042.000168 1031.152690  996.049796
C 1043.519920 1031.318080  996.235806
C 1043.911411 1032.786635  995.987451
C 1045.424128 1032.876038  995.713053
C 1045.918875 1034.301741  996.019969
C 1047.211425 1034.578566  995.229854
C 1047.939790 1035.788769  995.843444
C 1048.972702 1036.330979  994.838108
C 1050.070426 1037.102113  995.594384
C 1050.808184 1038.036522  994.617555
C 1052.178798 1038.417900  995.207104
C 1052.740421 1039.638527  994.454608
C 1054.255113 1039.747785  994.710282
C 1054.716745 1041.194373  994.453609
C 1056.218898 1041.202077  994.114381
C 1056.786022 1042.618397  994.324159
C 1058.139289 1042.742773  993.599728
C 1058.964184 1043.873536  994.242007
C 1060.060749 1044.330358  993.261976
C 1061.193171 1045.021916  994.043622
C 1061.938429 1045.997346  993.113716
C 1063.309635 1046.342798  993.723681
C 1063.845532 1047.637035  993.083865
C 1065.375715 1047.695868  993.247206
C 1065.849203 1049.156737  993.132019
C 1067.348297 1049.185056  992.780570
C 1067.908442 1050.597524  993.031114
C 1069.203217 1050.788491  992.219517
C 1070.008855 1051.962790  992.805666
C 1070.978794 1052.503970  991.738922
C 1072.170106 1053.193306  992.429713
C 1072.851566 1054.156150  991.439692
C 1074.318974 1054.367998  991.856147
C 1074.860884 1055.649361  991.195813
C 1076.398379 1055.661748  991.282739
C 1076.907672 1057.111124  991.175355
C 1078.383967 1057.106100  990.737030
C 1079.023418 1058.467158  991.069031
C 1080.178647 1058.745037  990.089322
C 1081.139733 1059.777473  990.707374
C 1081.964196 1060.445048  989.591038
C 1083.231523 1061.077211  990.195896
C 1083.785369 1062.142211  989.231205
C 1085.272618 1062.393540  989.541890
C 1085.705366 1063.738910  988.930083
C 1087.232479 1063.745775  988.731385
C 1087.726679 1065.197986  988.595558
C 1089.102123 1065.210276  987.903024
C 1089.806673 1066.550733  988.182992
C 1090.994309 1066.718821  987.217141
C 1091.984470 1067.747582  987.794057
C 1092.801253 1068.373484  986.648321
C 1094.096133 1068.985184  987.214633
C 1094.655352 1070.017875  986.218429
C 1096.160028 1070.219313  986.477222
C 1096.593364 1071.597526  985.943979
C 1098.111898 1071.595343  985.687755
C 1098.632567 1073.044563  985.671492
C 1099.962849 1073.104208  984.897933
C 1100.756023 1074.349918  985.334603
C 1101.659880 1074.815389  984.177892
C 1102.751357 1075.754418  984.724245
C 1103.263374 1076.662048  983.590382
C 1104.692210 1077.135219  983.916167
C 1105.053917 1078.333639  983.019196
C 1106.581320 1078.530161  983.015106
C 1106.911719 1079.982431  982.623509
C 1108.390684 1080.078250  982.205083
C 1108.878721 1081.529483  982.370438
C 1110.154262 1081.741346  981.533952
C 1110.941579 1082.941446  982.092067
C 1111.870423 1083.500421  980.998269
C 1112.989776 1084.333010  981.650532
C 1113.635548 1085.245478  980.591296
C 1115.001489 1085.739865  981.102554
C 1115.427588 1086.987286  980.306325
C 1116.950583 1087.179866  980.428799
C 1117.301659 1088.661356  980.197430
C 1118.762807 1088.775618  979.724574
C 1119.291796 1090.189994  980.026746
C 1120.464291 1090.513026  979.082020
C 1121.332037 1091.624518  979.701055
C 1122.255505 1092.217504  978.620697
C 1123.444369 1092.927954  979.294094
C 1124.069137 1093.931904  978.307509
C 1125.476587 1094.323401  978.794761
C 1125.923245 1095.617512  978.089514
C 1127.460701 1095.705164  978.101557
C 1127.896084 1097.145311  977.772895
C 1129.381473 1097.153211  977.366500
C 1129.959731 1098.567408  977.559548
C 1131.246086 1098.715025  976.725821
C 1132.130405 1099.818299  977.336040
C 1133.064338 1100.387039  976.251649
C 1134.243758 1101.117337  976.920405
C 1134.892604 1102.080042  975.908576
C 1136.350200 1102.355071  976.322550
C 1136.843032 1103.645727  975.642165
C 1138.382693 1103.676455  975.652154
C 1138.868628 1105.132363  975.526468
C 1140.358223 1105.145222  975.135903
C 1140.976856 1106.504117  975.513126
C 1142.283319 1106.710860  974.724448
C 1143.162870 1107.746601  975.449177
C 1144.233694 1108.280109  974.479483
C 1145.360692 1108.958080  975.280627
C 1146.125004 1109.934462  974.367332
C 1147.485293 1110.275594  975.003604
C 1148.029619 1111.577202  974.386251
C 1149.549533 1111.660538  974.619736
C 1150.010708 1113.123764  974.485986
C 1151.511544 1113.160404  974.142841
C 1152.074435 1114.561138  974.447303
C 1153.360034 1114.787296  973.630182
C 1154.166030 1115.944129  974.249623
C 1155.095439 1116.552158  973.182804
C 1156.290548 1117.236535  973.871965
C 1156.932752 1118.247082  972.903477
C 1158.357241 1118.583852  973.382035
C 1158.828798 1119.888942  972.714223
C 1160.367282 1119.952490  972.739325
C 1160.824399 1121.412609  972.564122
C 1162.297479 1121.439838  972.115911
C 1162.918671 1122.802725  972.474045
C 1164.191590 1123.023649  971.635911
C 1165.140597 1123.978095  972.384255
C 1166.149442 1124.583508  971.390622
C 1167.389370 1125.081518  972.156237
C 1168.156359 1126.096214  971.288067
C 1169.565989 1126.309189  971.870465
C 1170.167762 1127.606399  971.298873
C 1171.685655 1127.626739  971.558073
C 1172.210840 1129.068168  971.423670
C 1173.703157 1129.038312  971.044593
C 1174.348955 1130.392541  971.391879
C 1175.605141 1130.600235  970.525588
C 1176.548892 1131.599689  971.219869
C 1177.580047 1132.124194  970.203399
C 1178.771380 1132.747153  970.954565
C 1179.565410 1133.654580  969.996603
C 1181.010930 1133.801055  970.507110
C 1181.684865 1134.995628  969.806819
C 1183.215001 1134.836866  969.878078
C 1183.882990 1136.214680  969.713707
C 1185.346739 1136.027078  969.273432
C 1186.153953 1137.291931  969.620064
C 1187.483403 1137.282377  968.842843
C 1188.494473 1138.209774  969.542324
C 1189.542313 1138.690972  968.521502
C 1190.746527 1139.295597  969.267088
C 1191.480756 1140.283657  968.341753
C 1192.956862 1140.387446  968.768295
C 1193.544115 1141.720174  968.267725
C 1195.074695 1141.596075  968.151437
C 1195.707398 1142.999931  968.173181
C 1197.112984 1142.940066  967.546807
C 1197.971326 1144.093375  968.098830
C 1199.120426 1144.393785  967.118564
C 1200.162165 1145.294295  967.808101
C 1200.996126 1146.026316  966.740273
C 1202.354230 1146.435478  967.340056
C 1202.959067 1147.581825  966.508394
C 1204.475719 1147.657972  966.764462
C 1205.004121 1149.033636  966.317315
C 1206.539065 1148.982552  966.203567
C 1207.127522 1150.358597  966.566636
C 1208.577784 1150.448326  966.056451
C 1209.282355 1151.647075  966.718403
C 1210.434638 1152.127986  965.816978
C 1211.377202 1153.036317  966.628217
C 1212.201520 1153.911767  965.666091
C 1213.492956 1154.371361  966.367922
C 1214.065692 1155.600124  965.637363
C 1215.576106 1155.707249  965.918030
C 1216.040923 1157.156658  965.684025
C 1217.568801 1157.182006  965.492856
C 1218.087071 1158.619460  965.684481
C 1219.471132 1158.759244  965.023848
C 1220.182577 1160.006706  965.579983
C 1221.238025 1160.490434  964.568234
C 1222.281922 1161.361669  965.291303
C 1222.977596 1162.282807  964.271920
C 1224.287399 1162.821943  964.876362
C 1224.715111 1164.095400  964.123389
C 1226.218368 1164.344243  964.346765
C 1226.545759 1165.818517  964.045216
C 1228.061928 1165.973632  963.824374
C 1228.450060 1167.458823  963.947505
C 1229.817306 1167.690085  963.277613
C 1230.419828 1169.014256  963.782725
C 1231.448853 1169.533474  962.761392
C 1232.417625 1170.507416  963.457466
C 1233.203688 1171.297774  962.394903
C 1234.481880 1171.878754  963.027586
C 1234.969970 1173.077032  962.192422
C 1236.469397 1173.310047  962.455144
C 1236.850469 1174.739127  962.026059
C 1238.383486 1174.859033  961.941901
C 1238.786970 1176.344069  962.000785
C 1240.186047 1176.521559  961.382173
C 1240.815069 1177.828377  961.900011
C 1241.991260 1178.228594  960.990065
C 1242.942740 1179.162594  961.760734
C 1243.818608 1179.941886  960.762156
C 1245.089120 1180.442235  961.474232
C 1245.689581 1181.621232  960.686188
C 1247.151488 1181.837647  961.119305
C 1247.601814 1183.254879  960.718979
C 1249.137179 1183.293723  960.606094
C 1249.638815 1184.718461  960.906231
C 1251.058331 1184.894517  960.335635
C 1251.732337 1186.109473  960.999862
C 1252.930814 1186.563132  960.145787
C 1253.969697 1187.257791  961.045660
C 1254.886484 1188.144434  960.182546
C 1256.116952 1188.567094  961.006504
C 1256.796434 1189.774108  960.333435
C 1258.274831 1189.835723  960.760224
C 1258.773500 1191.290413  960.677732
C 1260.306415 1191.300791  960.530544
C 1260.855577 1192.671438  960.967979
C 1262.211427 1192.924409  960.282943
C 1262.966476 1194.037606  961.032806
C 1264.109123 1194.569725  960.148043
C 1265.155227 1195.276908  961.029609
C 1265.948595 1196.284947  960.177539
C 1267.278770 1196.616481  960.879195
C 1267.723124 1198.039432  960.492725
C 1269.212394 1198.224564  960.838268
C 1269.549211 1199.726884  960.872755
C 1271.074875 1199.913961  960.778138
C 1271.438982 1201.363691  961.148693
C 1272.812174 1201.718284  960.548520
C 1273.409997 1202.918291  961.306273
C 1274.560724 1203.525127  960.482151
C 1275.495404 1204.320553  961.412351
C 1276.315579 1205.324361  960.580917
C 1277.495816 1205.845273  961.421922
C 1277.974249 1207.195137  960.855733
C 1279.370933 1207.521703  961.416292
C 1279.644571 1209.029935  961.268106
C 1281.163634 1209.281724  961.293569
C 1281.432921 1210.774108  961.561665
C 1282.793280 1211.167794  960.956656
C 1283.315426 1212.439909  961.649972